  Granular Flow Simulation

       0 atoms
       4 atom types
       1 nutrients

   0.000000e-04   1e-04  xlo xhi
   0.000000e-04   0.4e-04  ylo yhi
   0.000000e-04   1e-04  zlo zhi

 Atoms


 Nutrients

     1 ca2 l 0 0 0 0 0 0 0

 Type Name

     1 stem
     2 ta
     3 diff
     4 bm

 
