LAMMPS (5 Nov 2016)
# NUFEB simulation

atom_style	bio
atom_modify	map array sort 100 5.0e-7
boundary	pp pp ff
newton		off
processors  * * 1

units si

comm_modify	vel yes
read_data_bio atom.in
  orthogonal box = (0 0 0) to (0.0001 4e-05 0.0001)
  1 by 1 by 1 MPI processor grid
  reading atoms ...
  0 atoms
  1 nutrients

variable x equal 100
variable y equal 20
variable z equal 30

lattice sc 1e-6 origin 0.5 0.5 0.5
Lattice spacing in x,y,z = 1e-06 1e-06 1e-06

region reg block 0 $x 0 $y 0 $z
region reg block 0 100 0 $y 0 $z
region reg block 0 100 0 20 0 $z
region reg block 0 100 0 20 0 30
region reg2 block 0 $x 0 $y 36 39
region reg2 block 0 100 0 $y 36 39
region reg2 block 0 100 0 20 36 39
#region reg3 block 1 2 1 100 36 38

variable  xx internal 0.0
variable  zz internal 0.0
variable  v equal "(0.08*v_z*zlat * cos(v_xx/xlat * 2.5*PI*4.0/v_x) + 0.85*v_z*zlat - v_zz) > 0.0"

variable xx2 internal 0.0
variable zz2 internal 0.0
variable v2 equal "(0.2*v_z*zlat * cos(v_xx2/xlat * 2.5*PI*4.0/v_x) + 0.95*v_z*zlat - v_zz2) > 0.0"

create_atoms 4 region reg var v set x xx set z zz
Created 51000 atoms
#create_atoms 4 region reg

group STEM type 1
0 atoms in group STEM
group TA type 2
0 atoms in group TA
group DIFF type 3
0 atoms in group DIFF
group BM type 4
51000 atoms in group BM

neighbor	5e-7 bin

set type 1 density 150
  0 settings made for density
set type 1 diameter 1.0e-6
  0 settings made for diameter
set type 1 mass 7.853981e-17
  0 settings made for mass

set type 2 density 150
  0 settings made for density
set type 2 diameter 1.0e-6
  0 settings made for diameter
set type 2 mass 7.853981e-17
  0 settings made for mass

set type 3 density 150
  0 settings made for density
set type 3 diameter 1.0e-6
  0 settings made for diameter
set type 3 mass 7.853981e-17
  0 settings made for mass

set type 4 density 150
  51000 settings made for density
set type 4 diameter 1.0e-6
  51000 settings made for diameter
set type 4 mass 7.853981e-17
  51000 settings made for mass


##############Define DEM Variables&Commands##############
fix sc1 STEM psoriasis/create_stem 1e-8 150 1.0e-6 50 64564

pair_style  gran/hooke/history 1.e-4 NULL 1.e-5 NULL 0.0 1
pair_coeff  * *

timestep 1e-10

fix 1 all nve/limit 1e-8
fix fv all viscous 1e-5

fix sf BM setforce 0.0 0.0 0.0

##############Define IBm Variables##############


#variables used in fix division
variable divDia equal 1.36e-6
variable EPSdens equal 30
variable divisionCounter equal 4
variable prob1 equal 0.1
variable prob2 equal 0.8
variable prob3 equal 0.1

#variables used in fix kinetics
variable diffT equal 1e-4
variable layer equal -1

##############Define IBm Commands##############

fix k1 all kinetics 100 25 10 25 v_diffT v_layer niter 1
#fix d1 STEM psoriasis/divide_stem 5400 v_prob1 v_prob2 v_prob3 64564
#fix d2 TA psoriasis/divide_ta 2160 v_prob1 v_prob2 v_prob3 64564


##############Define IBm Computes##############

compute myNtypes all ntypes
compute myMass all biomass

##############Simulation Output##############

# Use atom_# instead of atom%_#
dump		du1 all custom/vtk 1 atom_*.vtu id type diameter x y z
thermo_style    custom step cpu atoms c_myNtypes[*]
thermo		2160
thermo_modify	lost ignore


run 1
Neighbor list info ...
  2 neighbor list requests
  update every 1 steps, delay 10 steps, check yes
  max neighbors/atom: 2000, page size: 100000
  master list distance cutoff = 1.5e-06
  ghost atom cutoff = 1.5e-06
  binsize = 7.5e-07 -> bins = 134 54 134
Memory usage per processor = 30.3784 Mbytes
Step CPU Atoms c_myNtypes[1] c_myNtypes[2] c_myNtypes[3] c_myNtypes[4] c_myNtypes[5] 
       0            0    51050            0           50            0         2000        49000 
       1   0.12234807    51050            0           50            0         2000        49000 
Loop time of 0.122363 on 1 procs for 1 steps with 51050 atoms

98.4% CPU use with 1 MPI tasks x no OpenMP threads

MPI task timing breakdown:
Section |  min time  |  avg time  |  max time  |%varavg| %total
---------------------------------------------------------------
Pair    | 0.0067689  | 0.0067689  | 0.0067689  |   0.0 |  5.53
Neigh   | 0          | 0          | 0          |   0.0 |  0.00
Comm    | 0.00047588 | 0.00047588 | 0.00047588 |   0.0 |  0.39
Output  | 0.11328    | 0.11328    | 0.11328    |   0.0 | 92.58
Modify  | 0.0017171  | 0.0017171  | 0.0017171  |   0.0 |  1.40
Other   |            | 0.0001183  |            |       |  0.10

Nlocal:    51050 ave 51050 max 51050 min
Histogram: 1 0 0 0 0 0 0 0 0 0
Nghost:    6962 ave 6962 max 6962 min
Histogram: 1 0 0 0 0 0 0 0 0 0
Neighs:    438000 ave 438000 max 438000 min
Histogram: 1 0 0 0 0 0 0 0 0 0

Total # of neighbors = 438000
Ave neighs/atom = 8.57982
Neighbor list builds = 0
Dangerous builds = 0
Total wall time: 0:00:09
